

     ************************************************************************
     *************** Dalton - An Electronic Structure Program ***************
     ************************************************************************

    This is output from DALTON 2013.2
   ----------------------------------------------------------------------------
    NOTE:
     
    Dalton is an experimental code for the evaluation of molecular
    properties using (MC)SCF, DFT, CI, and CC wave functions.
    The authors accept no responsibility for the performance of
    the code or for the correctness of the results.
     
    The code (in whole or part) is provided under a licence and
    is not to be reproduced for further distribution without
    the written permission of the authors or their representatives.
     
    See the home page "http://daltonprogram.org" for further information.
     
    If results obtained with this code are published,
    the appropriate citations would be both of:
     
       K. Aidas, C. Angeli, K. L. Bak, V. Bakken, R. Bast,
       L. Boman, O. Christiansen, R. Cimiraglia, S. Coriani,
       P. Dahle, E. K. Dalskov, U. Ekstroem, T. Enevoldsen,
       J. J. Eriksen, P. Ettenhuber, B. Fernandez, L. Ferrighi,
       H. Fliegl, L. Frediani, K. Hald, A. Halkier, C. Haettig,
       H. Heiberg, T. Helgaker, A. C. Hennum, H. Hettema,
       E. Hjertenaes, S. Hoest, I.-M. Hoeyvik, M. F. Iozzi,
       B. Jansik, H. J. Aa. Jensen, D. Jonsson, P. Joergensen,
       J. Kauczor, S. Kirpekar, T. Kjaergaard, W. Klopper,
       S. Knecht, R. Kobayashi, H. Koch, J. Kongsted, A. Krapp,
       K. Kristensen, A. Ligabue, O. B. Lutnaes, J. I. Melo,
       K. V. Mikkelsen, R. H. Myhre, C. Neiss, C. B. Nielsen,
       P. Norman, J. Olsen, J. M. H. Olsen, A. Osted,
       M. J. Packer, F. Pawlowski, T. B. Pedersen, P. F. Provasi,
       S. Reine, Z. Rinkevicius, T. A. Ruden, K. Ruud, V. Rybkin,
       P. Salek, C. C. M. Samson, A. Sanchez de Meras, T. Saue,
       S. P. A. Sauer, B. Schimmelpfennig, K. Sneskov,
       A. H. Steindal, K. O. Sylvester-Hvid, P. R. Taylor,
       A. M. Teale, E. I. Tellgren, D. P. Tew, A. J. Thorvaldsen,
       L. Thoegersen, O. Vahtras, M. A. Watson, D. J. D. Wilson,
       M. Ziolkowski and H. Aagren,
       "The Dalton quantum chemistry program system",
       WIREs Comput. Mol. Sci. 2013. (doi: 10.1002/wcms.1172)
    
    and
    
       Dalton, a Molecular Electronic Structure Program,
       Release DALTON2013.2 (2013), see http://daltonprogram.org
   ----------------------------------------------------------------------------

    Authors in alphabetical order (major contribution(s) in parenthesis):

  Kestutis Aidas,           Vilnius University,           Lithuania   (QM/MM)
  Celestino Angeli,         University of Ferrara,        Italy       (NEVPT2)
  Keld L. Bak,              UNI-C,                        Denmark     (AOSOPPA, non-adiabatic coupling, magnetic properties)
  Vebjoern Bakken,          University of Oslo,           Norway      (DALTON; geometry optimizer, symmetry detection)
  Radovan Bast,             KTH Stockholm,                Sweden      (DALTON installation and execution frameworks)
  Linus Boman,              NTNU,                         Norway      (Cholesky decomposition and subsystems)
  Ove Christiansen,         Aarhus University,            Denmark     (CC module)
  Renzo Cimiraglia,         University of Ferrara,        Italy       (NEVPT2)
  Sonia Coriani,            University of Trieste,        Italy       (CC module, MCD in RESPONS)
  Paal Dahle,               University of Oslo,           Norway      (Parallelization)
  Erik K. Dalskov,          UNI-C,                        Denmark     (SOPPA)
  Thomas Enevoldsen,        Univ. of Southern Denmark,    Denmark     (SOPPA)
  Janus J. Eriksen,         Aarhus University,            Denmark     (PE-MP2/SOPPA, TDA)
  Berta Fernandez,          U. of Santiago de Compostela, Spain       (doublet spin, ESR in RESPONS)
  Lara Ferrighi,            Aarhus University,            Denmark     (PCM Cubic response)
  Heike Fliegl,             University of Oslo,           Norway      (CCSD(R12))
  Luca Frediani,            UiT The Arctic U. of Norway,  Norway      (PCM)
  Bin Gao,                  UiT The Arctic U. of Norway,  Norway      (Gen1Int library)
  Christof Haettig,         Ruhr-University Bochum,       Germany     (CC module)
  Kasper Hald,              Aarhus University,            Denmark     (CC module)
  Asger Halkier,            Aarhus University,            Denmark     (CC module)
  Hanne Heiberg,            University of Oslo,           Norway      (geometry analysis, selected one-electron integrals)
  Trygve Helgaker,          University of Oslo,           Norway      (DALTON; ABACUS, ERI, DFT modules, London, and much more)
  Alf Christian Hennum,     University of Oslo,           Norway      (Parity violation)
  Hinne Hettema,            University of Auckland,       New Zealand (quadratic response in RESPONS; SIRIUS supersymmetry)
  Eirik Hjertenaes,         NTNU,                         Norway      (Cholesky decomposition)
  Maria Francesca Iozzi,    University of Oslo,           Norway      (RPA)
  Brano Jansik              Technical Univ. of Ostrava    Czech Rep.  (DFT cubic response)
  Hans Joergen Aa. Jensen,  Univ. of Southern Denmark,    Denmark     (DALTON; SIRIUS, RESPONS, ABACUS modules, London, and much more)
  Dan Jonsson,              UiT The Arctic U. of Norway,  Norway      (cubic response in RESPONS module)
  Poul Joergensen,          Aarhus University,            Denmark     (RESPONS, ABACUS, and CC modules)
  Joanna Kauczor,           Linkoeping University,        Sweden      (Complex polarization propagator (CPP) module)
  Sheela Kirpekar,          Univ. of Southern Denmark,    Denmark     (Mass-velocity & Darwin integrals)
  Wim Klopper,              KIT Karlsruhe,                Germany     (R12 code in CC, SIRIUS, and ABACUS modules)
  Stefan Knecht,            ETH Zurich,                   Switzerland (Parallel CI and MCSCF)
  Rika Kobayashi,           Australian National Univ.,    Australia   (DIIS in CC, London in MCSCF)
  Henrik Koch,              NTNU,                         Norway      (CC module, Cholesky decomposition)
  Jacob Kongsted,           Univ. of Southern Denmark,    Denmark     (Polarizable embedding, QM/MM)
  Andrea Ligabue,           University of Modena,         Italy       (CTOCD, AOSOPPA)
  Ola B. Lutnaes,           University of Oslo,           Norway      (DFT Hessian)
  Juan I. Melo,             University of Buenos Aires,   Argentina   (LRESC, Relativistic Effects on NMR Shieldings)
  Kurt V. Mikkelsen,        University of Copenhagen,     Denmark     (MC-SCRF and QM/MM)
  Rolf H. Myhre,            NTNU,                         Norway      (Cholesky, subsystems and ECC2)
  Christian Neiss,          Univ. Erlangen-Nuernberg,     Germany     (CCSD(R12))
  Christian B. Nielsen,     University of Copenhagen,     Denmark     (QM/MM)
  Patrick Norman,           Linkoeping University,        Sweden      (Cubic response and complex response in RESPONS)
  Jeppe Olsen,              Aarhus University,            Denmark     (SIRIUS CI/density modules)
  Jogvan Magnus H. Olsen,   Univ. of Southern Denmark,    Denmark     (Polarizable embedding, PE library, QM/MM)
  Anders Osted,             Copenhagen University,        Denmark     (QM/MM)
  Martin J. Packer,         University of Sheffield,      UK          (SOPPA)
  Filip Pawlowski,          Kazimierz Wielki University,  Poland      (CC3)
  Thomas B. Pedersen,       University of Oslo,           Norway      (Cholesky decomposition)
  Patricio F. Provasi,      University of Northeastern,   Argentina   (Analysis of coupling constants in localized orbitals)
  Zilvinas Rinkevicius,     KTH Stockholm,                Sweden      (open-shell DFT, ESR)
  Elias Rudberg,            KTH Stockholm,                Sweden      (DFT grid and basis info)
  Torgeir A. Ruden,         University of Oslo,           Norway      (Numerical derivatives in ABACUS)
  Kenneth Ruud,             UiT The Arctic U. of Norway,  Norway      (DALTON; ABACUS magnetic properties and  much more)
  Pawel Salek,              KTH Stockholm,                Sweden      (DALTON; DFT code)
  Claire C. M. Samson       University of Karlsruhe       Germany     (Boys localization, r12 integrals in ERI)
  Alfredo Sanchez de Meras, University of Valencia,       Spain       (CC module, Cholesky decomposition)
  Trond Saue,               Paul Sabatier University,     France      (direct Fock matrix construction)
  Stephan P. A. Sauer,      University of Copenhagen,     Denmark     (SOPPA(CCSD), SOPPA prop., AOSOPPA, vibrational g-factors)
  Bernd Schimmelpfennig,    Forschungszentrum Karlsruhe,  Germany     (AMFI module)
  Kristian Sneskov,         Aarhus University,            Denmark     (QM/MM, PE-CC)
  Arnfinn H. Steindal,      UiT The Arctic U. of Norway,  Norway      (parallel QM/MM)
  K. O. Sylvester-Hvid,     University of Copenhagen,     Denmark     (MC-SCRF)
  Peter R. Taylor,          VLSCI/Univ. of Melbourne,     Australia   (Symmetry handling ABACUS, integral transformation)
  Andrew M. Teale,          University of Nottingham,     England     (DFT-AC, DFT-D)
  David P. Tew,             University of Bristol,        England     (CCSD(R12))
  Olav Vahtras,             KTH Stockholm,                Sweden      (triplet response, spin-orbit, ESR, TDDFT, open-shell DFT)
  David J. Wilson,          La Trobe University,          Australia   (DFT Hessian and DFT magnetizabilities)
  Hans Agren,               KTH Stockholm,                Sweden      (SIRIUS module, RESPONS, MC-SCRF solvation model)
 --------------------------------------------------------------------------------

     Date and time (Linux)  : Thu Apr 28 13:28:52 2016
     Host name              : c21-3.local                             

 * Work memory size             :    64000000 =  488.28 megabytes.

 * Directories for basis set searches:
   1) /global/work/espent/232
   2) /global/hds/home/install/dalton/2013.2/basis


Compilation information
-----------------------

 Who compiled             | dj
 Host                     | stallo-1.local
 System                   | Linux-2.6.32-358.6.2.el6.x86_64
 CMake generator          | Unix Makefiles
 Processor                | x86_64
 64-bit integers          | OFF
 MPI                      | ON
 Fortran compiler         | /global/apps/openmpi/1.6.2/intel/13.0/bin/mpif90
 Fortran compiler version | ifort (IFORT) 13.0.1 20121010
 C compiler               | /global/apps/openmpi/1.6.2/intel/13.0/bin/mpicc
 C compiler version       | icc (ICC) 13.0.1 20121010
 C++ compiler             | /global/apps/openmpi/1.6.2/intel/13.0/bin/mpicxx
 C++ compiler version     | unknown
 Static linking           | OFF
 Last Git revision        | 0be1cb1e4b1461124063216a63270ec99bfebef1
 Configuration time       | 2014-04-02 12:48:48.175907

 * Parallel with MPI: Using   40 CPUs.


   Content of the .dal input file
 ----------------------------------

**DALTON INPUT                                    
.OPTIMIZE                                         
.PARALLEL                                         
**WAVE FUNCTION                                   
.DFT                                              
 B3LYP                                            
**END OF INPUT                                    


   Content of the .mol file
 ----------------------------

BASIS                                                                          
6-31G**                                                                        
arbitrary text in here                                                         
arbitrary text in here                                                         
Atomtypes=4 Angstrom                                                           
Charge=7.0 Atoms=4                                                             
N     3.831536     0.000000     0.062646                                       
N     3.391185     0.000000     1.965657                                       
N     1.092573     0.000000     2.175061                                       
N     0.000000     0.000000     0.000000                                       
Charge=6.0 Atoms=8                                                             
C     2.359623     0.000000     0.016662                                       
C     2.346242     0.000000     1.466600                                       
C     4.217536     0.000000     1.154419                                       
C     0.000000     0.000000     1.440000                                       
C     1.179579     0.000000    -0.825950                                       
C    -1.305083     0.000000    -0.608570                                       
C     1.079284     0.000000     3.614999                                       
C     4.767291     0.000000    -1.031868                                       
Charge=8.0 Atoms=2                                                             
O    -1.345306     0.000000     1.827493                                       
O     1.192499     0.000000    -2.225890                                       
Charge=1.0 Atoms=10                                                            
H    -2.067983     0.000000     0.168543                                       
H    -1.417118     0.889165    -1.227242                                       
H    -1.417118    -0.889165    -1.227242                                       
H     0.049258     0.000000     3.968508                                       
H     1.589271    -0.889165     3.982721                                       
H     1.589271     0.889165     3.982721                                       
H     4.222791     0.000000    -1.974970                                       
H     5.393373     0.889165    -0.974180                                       
H     5.393373    -0.889165    -0.974180                                       
H     5.288201     0.000000     1.353412                                       


       *******************************************************************
       *********** Output from DALTON general input processing ***********
       *******************************************************************

 --------------------------------------------------------------------------------
   Overall default print level:    0
   Print level for DALTON.STAT:    1

    Parallel calculation using MPI
    AO-direct calculation (in sections where implemented)
    "Old" integral transformation used (limited to max 255 basis functions)
 --------------------------------------------------------------------------------


 Chosen parameters for *OPTIMI :
 -------------------------------

 Default 1st order method will be used:   BFGS update.
 Optimization will be performed in redundant internal coordinates.
 Model Hessian will be used as initial Hessian.
 The model Hessian parameters of Roland Lindh will be used.
 
 
 Trust region method will be used to control step (default).
 
 Convergence threshold for gradient set to :      1.00D-04
 Convergence threshold for energy set to   :      1.00D-06
 Convergence threshold for step set to     :      1.00D-04
 Number of convergence criteria set to     :   2


              >>>>>>>>>>>>>>>>>>>>>>>>>>>>>>>>>>>>>>>>>>>>>>>>>>>>>
              >>>>>>>>>> 1st Order Geometry Optimization >>>>>>>>>>
              >>>>>>>>>>>>>>>>>>>>>>>>>>>>>>>>>>>>>>>>>>>>>>>>>>>>>


 Reading .mol file to determine number of atoms for parallel runs.


                      SYMADD: Requested addition of symmetry
                      --------------------------------------

 Symmetry test threshold:  5.00E-06

 - molecule centered at center of mass and rotated so
   principal axes of inertia are along coordinate axes.

 Symmetry class found: C(s)           

 The following element was found:   Z        


   ****************************************************************************
   *************** Output of molecule and basis set information ***************
   ****************************************************************************


    The two title cards from your ".mol" input:
    ------------------------------------------------------------------------
 1: arbitrary text in here                                                  
 2: arbitrary text in here                                                  
    ------------------------------------------------------------------------

  Coordinates are entered in Angstrom and converted to atomic units.
          - Conversion factor : 1 bohr = 0.52917721 A

  Atomic type no.    1
  --------------------
  Nuclear charge:   7.00000
  Number of symmetry independent centers:    4
  Number of basis sets to read;    2
  Basis set file used for this atomic type with Z =   7 :
     "/global/hds/home/install/dalton/2013.2/basis/6-31G**"

  Info about the basis set file: your basis has no documentation.
  Basis set: 6-31G**                                                                         

  Atomic type no.    2
  --------------------
  Nuclear charge:   6.00000
  Number of symmetry independent centers:    8
  Number of basis sets to read;    2
  Basis set file used for this atomic type with Z =   6 :
     "/global/hds/home/install/dalton/2013.2/basis/6-31G**"

  Info about the basis set file: your basis has no documentation.
  Basis set: 6-31G**                                                                         

  Atomic type no.    3
  --------------------
  Nuclear charge:   8.00000
  Number of symmetry independent centers:    2
  Number of basis sets to read;    2
  Basis set file used for this atomic type with Z =   8 :
     "/global/hds/home/install/dalton/2013.2/basis/6-31G**"

  Info about the basis set file: your basis has no documentation.
  Basis set: 6-31G**                                                                         

  Atomic type no.    4
  --------------------
  Nuclear charge:   1.00000
  Number of symmetry independent centers:   10
  Number of basis sets to read;    2
  Basis set file used for this atomic type with Z =   1 :
     "/global/hds/home/install/dalton/2013.2/basis/6-31G**"

  Info about the basis set file: your basis has no documentation.
  Basis set: 6-31G**                                                                         


                      SYMADD: Requested addition of symmetry
                      --------------------------------------

 Symmetry test threshold:  5.00E-06

 - molecule centered at center of mass and rotated so
   principal axes of inertia are along coordinate axes.

 Symmetry class found: C(s)           

 Symmetry Independent Centres             
 ----------------------------
       8 :      0.39834848     5.43481302     0.00000000  Isotope  1
       8 :     -5.89716362    -1.04886603     0.00000000  Isotope  1
       7 :     -1.53043606    -2.65722948     0.00000000  Isotope  1
       7 :     -2.68718152     1.79463445     0.00000000  Isotope  1
       7 :      2.79970250    -3.18128162     0.00000000  Isotope  1
       7 :      4.36752648     0.16039841     0.00000000  Isotope  1
       6 :      1.66609443     0.82870038     0.00000000  Isotope  1
       6 :      1.06674204    -1.84504940     0.00000000  Isotope  1
       6 :     -0.18033729     2.85326193     0.00000000  Isotope  1
       6 :     -3.25787126    -0.86605592     0.00000000  Isotope  1
       6 :      4.64805622    -2.00984892     0.00000000  Isotope  1
       6 :     -2.12565533    -5.31253870     0.00000000  Isotope  1
       6 :     -4.85740173     3.43631071     0.00000000  Isotope  1
       6 :      6.53029191     1.81188249     0.00000000  Isotope  1
       1 :     -1.32908427    -6.19409338     1.68027833  Isotope  1
       1 :     -4.81922165     4.62383284     1.68027833  Isotope  1
       1 :     -4.16893604    -5.55750587     0.00000000  Isotope  1
       1 :     -6.57499278     2.30278441     0.00000000  Isotope  1
       1 :      5.89798131     3.77024567     0.00000000  Isotope  1
       1 :      6.54746233    -2.80184634     0.00000000  Isotope  1
       1 :      7.66424219     1.45716827     1.68027833  Isotope  1

 The following element was found:   Z        


                         SYMGRP: Point group information
                         -------------------------------

Full point group is: C(s)           
Represented as:      Cs 

   * The point group was generated by:

      Reflection in the xy-plane

   * Group multiplication table

        |  E   Oxy
   -----+----------
     E  |  E   Oxy
    Oxy | Oxy   E 

   * Character table

        |  E   Oxy
   -----+----------
    A'  |   1    1
    A"  |   1   -1

   * Direct product table

        | A'   A" 
   -----+----------
    A'  | A'   A" 
    A"  | A"   A' 


                                 Isotopic Masses
                                 ---------------

                           N          14.003074
                           N          14.003074
                           N          14.003074
                           N          14.003074
                           C          12.000000
                           C          12.000000
                           C          12.000000
                           C          12.000000
                           C          12.000000
                           C          12.000000
                           C          12.000000
                           C          12.000000
                           O          15.994915
                           O          15.994915
                           H           1.007825
                           H   _1      1.007825
                           H   _2      1.007825
                           H           1.007825
                           H   _1      1.007825
                           H   _2      1.007825
                           H           1.007825
                           H   _1      1.007825
                           H   _2      1.007825
                           H           1.007825

                       Total mass:   194.080376 amu
                       Natural abundance:  89.617 %

 Center-of-mass coordinates (a.u.):   -0.000000    0.000000    0.000000


  Atoms and basis sets
  --------------------

  Number of atom types :    4
  Total number of atoms:   24

  Basis set used is "6-31G**" from the basis set library.

  label    atoms   charge   prim   cont     basis
  ----------------------------------------------------------------------
  N           4    7.0000    27    14      [10s4p1d|3s2p1d]                                   
  C           8    6.0000    27    14      [10s4p1d|3s2p1d]                                   
  O           2    8.0000    27    14      [10s4p1d|3s2p1d]                                   
  H          10    1.0000     7     5      [4s1p|2s1p]                                        
  ----------------------------------------------------------------------
  total:     24  102.0000   448   246
  ----------------------------------------------------------------------
  Spherical harmonic basis used.

  Threshold for neglecting AO integrals:  1.00D-12


  Symmetry Coordinates
  --------------------

  Number of coordinates in each symmetry:    45   27

  Max    interatomic separation is    7.6005 Angstrom (   14.3629 Bohr)
  between atoms   22 and   15, "H   _1" and "H     ".

  Min HX interatomic separation is    1.0890 Angstrom (    2.0579 Bohr)

  Min YX interatomic separation is    1.1580 Angstrom (    2.1883 Bohr)


  Bond distances (Angstrom):
  --------------------------

                  atom 1     atom 2       distance
                  ------     ------       --------
  bond distance:  C          N            1.472631
  bond distance:  C          N            1.158000
  bond distance:  C          N            1.440001
  bond distance:  C          C            1.450000
  bond distance:  C          N            1.158000
  bond distance:  C          N            1.158000
  bond distance:  C          C            1.897155
  bond distance:  C          N            1.316826
  bond distance:  C          N            1.440000
  bond distance:  C          N            1.440000
  bond distance:  C          C            1.450000
  bond distance:  C          N            1.440000
  bond distance:  C          N            1.439999
  bond distance:  C          N            1.439999
  bond distance:  O          C            1.400000
  bond distance:  O          C            1.400000
  bond distance:  H          C            1.089000
  bond distance:  H   _1     C            1.089000
  bond distance:  H   _2     C            1.089000
  bond distance:  H          C            1.089001
  bond distance:  H   _1     C            1.089000
  bond distance:  H   _2     C            1.089000
  bond distance:  H          C            1.089000
  bond distance:  H   _1     C            1.089000
  bond distance:  H   _2     C            1.089000
  bond distance:  H          C            1.089000


  Bond angles (degrees):
  ----------------------

                  atom 1     atom 2     atom 3         angle
                  ------     ------     ------         -----
  bond angle:     C          N          C            111.261
  bond angle:     C          N          C            128.739
  bond angle:     C          N          C            120.000
  bond angle:     C          N          C            110.000
  bond angle:     C          N          C            116.597
  bond angle:     C          N          C            120.000
  bond angle:     C          N          C            123.403
  bond angle:     C          N          C            125.000
  bond angle:     C          N          C            115.000
  bond angle:     C          N          C            120.000
  bond angle:     N          C          C             88.739
  bond angle:     N          C          C            146.261
  bond angle:     C          C          C            125.000
  bond angle:     N          C          N            125.000
  bond angle:     N          C          C            115.000
  bond angle:     N          C          C             35.000
  bond angle:     N          C          C            120.000
  bond angle:     N          C          C            160.000
  bond angle:     C          C          C             80.000
  bond angle:     N          C          N            115.000
  bond angle:     N          C          C             80.000
  bond angle:     N          C          H            120.000
  bond angle:     N          C          C             35.000
  bond angle:     N          C          H            125.000
  bond angle:     C          C          H            160.000
  bond angle:     N          C          N            123.932
  bond angle:     N          C          O            130.000
  bond angle:     N          C          O            106.068
  bond angle:     N          C          C            109.471
  bond angle:     N          C          O            125.529
  bond angle:     C          C          O            125.000
  bond angle:     N          C          H            109.471
  bond angle:     N          C          H   _1       109.471
  bond angle:     N          C          H   _2       109.471
  bond angle:     H          C          H   _1       109.471
  bond angle:     H          C          H   _2       109.471
  bond angle:     H   _1     C          H   _2       109.471
  bond angle:     N          C          H            109.471
  bond angle:     N          C          H   _1       109.471
  bond angle:     N          C          H   _2       109.471
  bond angle:     H          C          H   _1       109.471
  bond angle:     H          C          H   _2       109.471
  bond angle:     H   _1     C          H   _2       109.471
  bond angle:     N          C          H            109.471
  bond angle:     N          C          H   _1       109.471
  bond angle:     N          C          H   _2       109.471
  bond angle:     H          C          H   _1       109.471
  bond angle:     H          C          H   _2       109.471
  bond angle:     H   _1     C          H   _2       109.471




 Principal moments of inertia (u*A**2) and principal axes
 --------------------------------------------------------

   IA     476.220494          1.000000   -0.000000    0.000000
   IB     749.869208          0.000000    1.000000    0.000000
   IC    1216.528090          0.000000    0.000000    1.000000


 Rotational constants
 --------------------

               A                   B                   C

           1061.2290            673.9562            415.4273 MHz
            0.035399            0.022481            0.013857 cm-1


@  Nuclear repulsion energy :  925.613037359559 Hartree


  Symmetry Orbitals
  -----------------

  Number of orbitals in each symmetry:         171   75


  Symmetry  A' ( 1)

    1     N        1s         1
    2     N        1s         2
    3     N        1s         3
    4     N        2px        4
    5     N        2py        5
    6     N        2px        7
    7     N        2py        8
    8     N        3d2-      10
    9     N        3d0       12
   10     N        3d2+      14
   11     N        1s        15
   12     N        1s        16
   13     N        1s        17
   14     N        2px       18
   15     N        2py       19
   16     N        2px       21
   17     N        2py       22
   18     N        3d2-      24
   19     N        3d0       26
   20     N        3d2+      28
   21     N        1s        29
   22     N        1s        30
   23     N        1s        31
   24     N        2px       32
   25     N        2py       33
   26     N        2px       35
   27     N        2py       36
   28     N        3d2-      38
   29     N        3d0       40
   30     N        3d2+      42
   31     N        1s        43
   32     N        1s        44
   33     N        1s        45
   34     N        2px       46
   35     N        2py       47
   36     N        2px       49
   37     N        2py       50
   38     N        3d2-      52
   39     N        3d0       54
   40     N        3d2+      56
   41     C        1s        57
   42     C        1s        58
   43     C        1s        59
   44     C        2px       60
   45     C        2py       61
   46     C        2px       63
   47     C        2py       64
   48     C        3d2-      66
   49     C        3d0       68
   50     C        3d2+      70
   51     C        1s        71
   52     C        1s        72
   53     C        1s        73
   54     C        2px       74
   55     C        2py       75
   56     C        2px       77
   57     C        2py       78
   58     C        3d2-      80
   59     C        3d0       82
   60     C        3d2+      84
   61     C        1s        85
   62     C        1s        86
   63     C        1s        87
   64     C        2px       88
   65     C        2py       89
   66     C        2px       91
   67     C        2py       92
   68     C        3d2-      94
   69     C        3d0       96
   70     C        3d2+      98
   71     C        1s        99
   72     C        1s       100
   73     C        1s       101
   74     C        2px      102
   75     C        2py      103
   76     C        2px      105
   77     C        2py      106
   78     C        3d2-     108
   79     C        3d0      110
   80     C        3d2+     112
   81     C        1s       113
   82     C        1s       114
   83     C        1s       115
   84     C        2px      116
   85     C        2py      117
   86     C        2px      119
   87     C        2py      120
   88     C        3d2-     122
   89     C        3d0      124
   90     C        3d2+     126
   91     C        1s       127
   92     C        1s       128
   93     C        1s       129
   94     C        2px      130
   95     C        2py      131
   96     C        2px      133
   97     C        2py      134
   98     C        3d2-     136
   99     C        3d0      138
  100     C        3d2+     140
  101     C        1s       141
  102     C        1s       142
  103     C        1s       143
  104     C        2px      144
  105     C        2py      145
  106     C        2px      147
  107     C        2py      148
  108     C        3d2-     150
  109     C        3d0      152
  110     C        3d2+     154
  111     C        1s       155
  112     C        1s       156
  113     C        1s       157
  114     C        2px      158
  115     C        2py      159
  116     C        2px      161
  117     C        2py      162
  118     C        3d2-     164
  119     C        3d0      166
  120     C        3d2+     168
  121     O        1s       169
  122     O        1s       170
  123     O        1s       171
  124     O        2px      172
  125     O        2py      173
  126     O        2px      175
  127     O        2py      176
  128     O        3d2-     178
  129     O        3d0      180
  130     O        3d2+     182
  131     O        1s       183
  132     O        1s       184
  133     O        1s       185
  134     O        2px      186
  135     O        2py      187
  136     O        2px      189
  137     O        2py      190
  138     O        3d2-     192
  139     O        3d0      194
  140     O        3d2+     196
  141     H        1s       197
  142     H        1s       198
  143     H        2px      199
  144     H        2py      200
  145     H        1s       202 +  203
  146     H        1s       204 +  205
  147     H        2px      206 +  207
  148     H        2py      208 +  209
  149     H        2pz      210 -  211
  150     H        1s       212
  151     H        1s       213
  152     H        2px      214
  153     H        2py      215
  154     H        1s       217 +  218
  155     H        1s       219 +  220
  156     H        2px      221 +  222
  157     H        2py      223 +  224
  158     H        2pz      225 -  226
  159     H        1s       227
  160     H        1s       228
  161     H        2px      229
  162     H        2py      230
  163     H        1s       232 +  233
  164     H        1s       234 +  235
  165     H        2px      236 +  237
  166     H        2py      238 +  239
  167     H        2pz      240 -  241
  168     H        1s       242
  169     H        1s       243
  170     H        2px      244
  171     H        2py      245


  Symmetry  A" ( 2)

  172     N        2pz        6
  173     N        2pz        9
  174     N        3d1-      11
  175     N        3d1+      13
  176     N        2pz       20
  177     N        2pz       23
  178     N        3d1-      25
  179     N        3d1+      27
  180     N        2pz       34
  181     N        2pz       37
  182     N        3d1-      39
  183     N        3d1+      41
  184     N        2pz       48
  185     N        2pz       51
  186     N        3d1-      53
  187     N        3d1+      55
  188     C        2pz       62
  189     C        2pz       65
  190     C        3d1-      67
  191     C        3d1+      69
  192     C        2pz       76
  193     C        2pz       79
  194     C        3d1-      81
  195     C        3d1+      83
  196     C        2pz       90
  197     C        2pz       93
  198     C        3d1-      95
  199     C        3d1+      97
  200     C        2pz      104
  201     C        2pz      107
  202     C        3d1-     109
  203     C        3d1+     111
  204     C        2pz      118
  205     C        2pz      121
  206     C        3d1-     123
  207     C        3d1+     125
  208     C        2pz      132
  209     C        2pz      135
  210     C        3d1-     137
  211     C        3d1+     139
  212     C        2pz      146
  213     C        2pz      149
  214     C        3d1-     151
  215     C        3d1+     153
  216     C        2pz      160
  217     C        2pz      163
  218     C        3d1-     165
  219     C        3d1+     167
  220     O        2pz      174
  221     O        2pz      177
  222     O        3d1-     179
  223     O        3d1+     181
  224     O        2pz      188
  225     O        2pz      191
  226     O        3d1-     193
  227     O        3d1+     195
  228     H        2pz      201
  229     H        1s       202 -  203
  230     H        1s       204 -  205
  231     H        2px      206 -  207
  232     H        2py      208 -  209
  233     H        2pz      210 +  211
  234     H        2pz      216
  235     H        1s       217 -  218
  236     H        1s       219 -  220
  237     H        2px      221 -  222
  238     H        2py      223 -  224
  239     H        2pz      225 +  226
  240     H        2pz      231
  241     H        1s       232 -  233
  242     H        1s       234 -  235
  243     H        2px      236 -  237
  244     H        2py      238 -  239
  245     H        2pz      240 +  241
  246     H        2pz      246

  Symmetries of electric field:  A' (1)  A' (1)  A" (2)

  Symmetries of magnetic field:  A" (2)  A" (2)  A' (1)


                     .---------------------------------------.
                     | Starting in Integral Section (HERMIT) |
                     `---------------------------------------'



    *************************************************************************
    ****************** Output from HERMIT input processing ******************
    *************************************************************************



     ************************************************************************
     ************************** Output from HERINT **************************
     ************************************************************************

 >>>  Time used in ONEDRV     is   0.11 seconds
 >>>  Time used in GABGEN     is   0.12 seconds
 >>>> Total CPU  time used in HERMIT:   0.49 seconds
 >>>> Total wall time used in HERMIT:   1.20 seconds


                        .----------------------------------.
                        | End of Integral Section (HERMIT) |
                        `----------------------------------'



                   .--------------------------------------------.
                   | Starting in Wave Function Section (SIRIUS) |
                   `--------------------------------------------'


 *** Output from Huckel module :

     Using EWMO model:          F
     Using EHT  model:          T
     Number of Huckel orbitals each symmetry:   63   17

 Huckel EHT eigenvalues for symmetry :  1
          -20.695003     -20.693345     -15.741036     -15.726222     -15.712383
          -15.705866     -11.423895     -11.404161     -11.384410     -11.382947
          -11.381286     -11.377775     -11.374917     -11.365363      -1.853980
           -1.720674      -1.570787      -1.468528      -1.362676      -1.307070
           -1.212217      -1.047572      -1.003062      -0.967641      -0.838865
           -0.792452      -0.768182      -0.725640      -0.651747      -0.629153
           -0.610461      -0.597527      -0.570935      -0.549755      -0.535603
           -0.511463      -0.480086      -0.462768      -0.452625      -0.444536
           -0.412113      -0.312026      -0.278659      -0.260294      -0.250901
           -0.249143      -0.241641      -0.235692      -0.214105      -0.213599
           -0.210653      -0.210548      -0.208348      -0.202322      -0.199876
           -0.198159      -0.195871      -0.186043      -0.182080      -0.171957
           -0.164241      -0.158533      -0.151281

 Huckel EHT eigenvalues for symmetry :  2
           -0.889358      -0.756775      -0.696682      -0.639104      -0.604229
           -0.590784      -0.513490      -0.471077      -0.442326      -0.408629
           -0.309377      -0.298667      -0.271434      -0.250392      -0.199867
           -0.199718      -0.199590

 **********************************************************************
 *SIRIUS* a direct, restricted step, second order MCSCF program       *
 **********************************************************************

 
     Date and time (Linux)  : Thu Apr 28 13:28:58 2016
     Host name              : c21-3.local                             

 Title lines from ".mol" input file:
     arbitrary text in here                                                  
     arbitrary text in here                                                  

 Print level on unit LUPRI =   2 is   0
 Print level on unit LUW4  =   2 is   5

@    Restricted, closed shell Kohn-Sham DFT calculation.
 Fock matrices are calculated directly and in parallel without use of integrals on disk.

 Initial molecular orbitals are obtained according to
 ".MOSTART EHT   " input option

     Wave function specification
     ============================
@    For the wave function of type :      >>> KS-DFT <<<
@    Number of closed shell electrons         102
@    Number of electrons in active shells       0
@    Total charge of the molecule               0

@    Spin multiplicity and 2 M_S                1         0
     Total number of symmetries                 2
@    Reference state symmetry                   1
 
     This is a DFT calculation of type: B3LYP
 Weighted mixed functional:
               HF exchange:    0.20000
                       VWN:    0.19000
                       LYP:    0.81000
                     Becke:    0.72000
                    Slater:    0.80000

     Orbital specifications
     ======================
     Abelian symmetry species          All |    1    2
                                       --- |  ---  ---
     Total number of orbitals          246 |  171   75
     Number of basis functions         246 |  171   75

      ** Automatic occupation of RKS orbitals **

      -- Initial occupation of symmetries is determined from extended Huckel guess.           
      -- Initial occupation of symmetries is :
@    Occupied SCF orbitals              51 |   41   10

     Maximum number of Fock   iterations      0
     Maximum number of DIIS   iterations     60
     Maximum number of QC-SCF iterations     60
     Threshold for SCF convergence     1.00D-05
 
     This is a DFT calculation of type: B3LYP
 Weighted mixed functional:
               HF exchange:    0.20000
                       VWN:    0.19000
                       LYP:    0.81000
                     Becke:    0.72000
                    Slater:    0.80000


 >>>>> DIIS optimization of Hartree-Fock <<<<<

 C1-DIIS algorithm; max error vectors =    5

 Automatic occupation of symmetries with 102 electrons.

 Iter     Total energy    Error norm  Delta(E)    SCF occupation
 -----------------------------------------------------------------------------
   1  Screening settings (-IFTHRS, DIFDEN)   -8    F
      K-S energy, electrons, error :    -73.343402356038 102.0000256138    2.56D-05
@  1  -676.497777574       8.16D+00  -6.76D+02    41  10
      Virial theorem: -V/T =      2.002199
@      MULPOP N       0.63; N      -0.01; N       0.63; N       0.46; C       0.01; C       0.26; C       0.22; C       0.28; C       0.08; C       0.41; 
@             C       0.44; C       0.42; O      -1.10; O      -1.18; H      -0.13; H   _1 -0.15; H   _2 -0.15; H      -0.14; H   _1 -0.14; H   _2 -0.14; 
@             H      -0.14; H   _1 -0.14; H   _2 -0.14; H      -0.26; 
 -----------------------------------------------------------------------------
   2  Screening settings (-IFTHRS, DIFDEN)   -8    F
      K-S energy, electrons, error :    -75.925874408055 102.0000048167    4.82D-06
@  2  -652.531746818       1.62D+01   2.40D+01    39  12
      Virial theorem: -V/T =      1.951861
@      MULPOP N      -1.33; N      -0.58; N      -1.40; N      -1.02; C      -1.59; C      -2.05; C      -1.47; C      -0.96; C      -0.58; C      -0.84; 
@             C      -0.91; C      -0.87; O       4.64; O       4.92; H       0.46; H   _1  0.37; H   _2  0.37; H       0.47; H   _1  0.39; H   _2  0.39; 
@             H       0.45; H   _1  0.37; H   _2  0.37; H       0.39; 
 -----------------------------------------------------------------------------
   3  Screening settings (-IFTHRS, DIFDEN)   -8    F
      K-S energy, electrons, error :    -75.374638759554 101.9999977392   -2.26D-06
@  3  -672.390915516       9.44D+00  -1.99D+01    41  10
      Virial theorem: -V/T =      1.979478
@      MULPOP N       0.46; N       1.89; N       0.31; N      -0.59; C       1.52; C       0.87; C       0.37; C      -0.37; C      -1.35; C      -0.65; 
@             C      -0.53; C      -0.60; O      -1.58; O      -1.67; H       0.19; H   _1  0.23; H   _2  0.23; H       0.11; H   _1  0.27; H   _2  0.27; 
@             H       0.13; H   _1  0.20; H   _2  0.20; H       0.08; 
 -----------------------------------------------------------------------------
   4  Screening settings (-IFTHRS, DIFDEN)   -8    F
      K-S energy, electrons, error :    -74.624531023681 102.0000021500    2.15D-06
@  4  -679.008465656       3.51D+00  -6.62D+00    41  10
      Virial theorem: -V/T =      1.999916
@      MULPOP N      -0.28; N      -0.90; N      -0.38; N       0.17; C       0.48; C       0.28; C       0.08; C       1.13; C       1.22; C      -0.25; 
@             C      -0.31; C      -0.26; O      -1.22; O      -1.20; H       0.10; H   _1  0.11; H   _2  0.11; H       0.17; H   _1  0.15; H   _2  0.15; 
@             H       0.18; H   _1  0.15; H   _2  0.15; H       0.17; 
 -----------------------------------------------------------------------------
   5  Screening settings (-IFTHRS, DIFDEN)   -8    F
      K-S energy, electrons, error :    -73.921579057122 102.0000087613    8.76D-06
@  5  -678.880291092       4.00D+00   1.28D-01    41  10
      Virial theorem: -V/T =      2.007090
@      MULPOP N      -0.32; N       0.26; N      -0.49; N      -1.12; C      -0.40; C       0.45; C       0.55; C       0.27; C      -0.15; C      -0.06; 
@             C       0.02; C      -0.12; O      -0.02; O       0.07; H       0.22; H   _1  0.13; H   _2  0.13; H       0.09; H   _1  0.10; H   _2  0.10; 
@             H       0.11; H   _1  0.11; H   _2  0.11; H      -0.03; 
 -----------------------------------------------------------------------------
   6  Screening settings (-IFTHRS, DIFDEN)   -8    F
      K-S energy, electrons, error :    -74.299661852736 102.0000055123    5.51D-06
@  6  -679.730453892       4.91D-01  -8.50D-01    41  10
      Virial theorem: -V/T =      2.004168
@      MULPOP N      -0.43; N      -0.13; N      -0.48; N      -0.43; C       0.22; C       0.23; C       0.10; C       0.63; C       0.56; C      -0.18; 
@             C      -0.18; C      -0.21; O      -0.56; O      -0.62; H       0.20; H   _1  0.12; H   _2  0.12; H       0.17; H   _1  0.14; H   _2  0.14; 
@             H       0.18; H   _1  0.14; H   _2  0.14; H       0.12; 
 -----------------------------------------------------------------------------
   7  Screening settings (-IFTHRS, DIFDEN)   -9    F
      K-S energy, electrons, error :    -74.291434238455 102.0000051092    5.11D-06
@  7  -679.732889752       4.44D-01  -2.44D-03    41  10
      Virial theorem: -V/T =      2.004310
@      MULPOP N      -0.27; N      -0.34; N      -0.43; N      -0.57; C       0.07; C       0.35; C       0.22; C       0.73; C       0.48; C      -0.18; 
@             C      -0.20; C      -0.23; O      -0.63; O      -0.45; H       0.20; H   _1  0.13; H   _2  0.13; H       0.17; H   _1  0.14; H   _2  0.14; 
@             H       0.17; H   _1  0.14; H   _2  0.14; H       0.10; 
 -----------------------------------------------------------------------------
   8  Screening settings (-IFTHRS, DIFDEN)   -9    F
      K-S energy, electrons, error :    -74.291750411302 102.0000050063    5.01D-06
@  8  -679.741430820       1.77D-01  -8.54D-03    41  10
      Virial theorem: -V/T =      2.004322
@      MULPOP N      -0.35; N      -0.28; N      -0.47; N      -0.50; C       0.10; C       0.35; C       0.22; C       0.67; C       0.57; C      -0.16; 
@             C      -0.18; C      -0.22; O      -0.56; O      -0.60; H       0.19; H   _1  0.12; H   _2  0.12; H       0.16; H   _1  0.14; H   _2  0.14; 
@             H       0.17; H   _1  0.14; H   _2  0.14; H       0.10; 
 -----------------------------------------------------------------------------
   9  Screening settings (-IFTHRS, DIFDEN)  -10    F
      K-S energy, electrons, error :    -74.286255485264 102.0000052121    5.21D-06
@  9  -679.743048659       5.05D-02  -1.62D-03    41  10
      Virial theorem: -V/T =      2.004389
@      MULPOP N      -0.36; N      -0.28; N      -0.47; N      -0.49; C       0.13; C       0.31; C       0.19; C       0.68; C       0.54; C      -0.17; 
@             C      -0.18; C      -0.21; O      -0.59; O      -0.55; H       0.19; H   _1  0.12; H   _2  0.12; H       0.17; H   _1  0.14; H   _2  0.14; 
@             H       0.17; H   _1  0.14; H   _2  0.14; H       0.11; 
 -----------------------------------------------------------------------------
  10  Screening settings (-IFTHRS, DIFDEN)  -10    F
      K-S energy, electrons, error :    -74.292075465868 102.0000051623    5.16D-06
@ 10  -679.743186993       1.13D-02  -1.38D-04    41  10
      Virial theorem: -V/T =      2.004318
@      MULPOP N      -0.35; N      -0.27; N      -0.46; N      -0.50; C       0.13; C       0.31; C       0.19; C       0.69; C       0.54; C      -0.17; 
@             C      -0.18; C      -0.22; O      -0.59; O      -0.56; H       0.19; H   _1  0.12; H   _2  0.12; H       0.17; H   _1  0.14; H   _2  0.14; 
@             H       0.17; H   _1  0.14; H   _2  0.14; H       0.11; 
 -----------------------------------------------------------------------------
  11  Screening settings (-IFTHRS, DIFDEN)  -11    F
      K-S energy, electrons, error :    -74.293585382501 102.0000051576    5.16D-06
@ 11  -679.743188001       1.05D-02  -1.01D-06    41  10
      Virial theorem: -V/T =      2.004300
@      MULPOP N      -0.34; N      -0.27; N      -0.47; N      -0.50; C       0.13; C       0.31; C       0.19; C       0.68; C       0.54; C      -0.17; 
@             C      -0.18; C      -0.22; O      -0.59; O      -0.56; H       0.19; H   _1  0.12; H   _2  0.12; H       0.17; H   _1  0.14; H   _2  0.14; 
@             H       0.17; H   _1  0.14; H   _2  0.14; H       0.11; 
 -----------------------------------------------------------------------------
  12  Screening settings (-IFTHRS, DIFDEN)  -11    F
      K-S energy, electrons, error :    -74.292642595074 102.0000051681    5.17D-06
@ 12  -679.743192862       5.42D-03  -4.86D-06    41  10
      Virial theorem: -V/T =      2.004311
@      MULPOP N      -0.35; N      -0.27; N      -0.46; N      -0.50; C       0.13; C       0.31; C       0.19; C       0.68; C       0.54; C      -0.17; 
@             C      -0.18; C      -0.22; O      -0.59; O      -0.56; H       0.19; H   _1  0.12; H   _2  0.12; H       0.17; H   _1  0.14; H   _2  0.14; 
@             H       0.17; H   _1  0.14; H   _2  0.14; H       0.11; 
 -----------------------------------------------------------------------------
  13  Screening settings (-IFTHRS, DIFDEN)  -11    F
      K-S energy, electrons, error :    -74.292770226702 102.0000051653    5.17D-06
@ 13  -679.743194462       1.32D-03  -1.60D-06    41  10
      Virial theorem: -V/T =      2.004310
@      MULPOP N      -0.35; N      -0.27; N      -0.46; N      -0.50; C       0.13; C       0.31; C       0.19; C       0.68; C       0.54; C      -0.17; 
@             C      -0.18; C      -0.22; O      -0.59; O      -0.56; H       0.19; H   _1  0.12; H   _2  0.12; H       0.17; H   _1  0.14; H   _2  0.14; 
@             H       0.17; H   _1  0.14; H   _2  0.14; H       0.11; 
 -----------------------------------------------------------------------------
  14  Screening settings (-IFTHRS, DIFDEN)  -12    F
      K-S energy, electrons, error :    -74.292564759933 102.0000051652    5.17D-06
@ 14  -679.743194546       3.35D-04  -8.47D-08    41  10
      Virial theorem: -V/T =      2.004312
@      MULPOP N      -0.35; N      -0.27; N      -0.46; N      -0.50; C       0.13; C       0.31; C       0.19; C       0.68; C       0.54; C      -0.17; 
@             C      -0.18; C      -0.22; O      -0.59; O      -0.56; H       0.19; H   _1  0.12; H   _2  0.12; H       0.17; H   _1  0.14; H   _2  0.14; 
@             H       0.17; H   _1  0.14; H   _2  0.14; H       0.11; 
 -----------------------------------------------------------------------------
  15  Screening settings (-IFTHRS, DIFDEN)  -12    F
      K-S energy, electrons, error :    -74.292607203250 102.0000051655    5.17D-06
@ 15  -679.743194548       2.92D-04  -1.79D-09    41  10
      Virial theorem: -V/T =      2.004312
@      MULPOP N      -0.35; N      -0.27; N      -0.46; N      -0.50; C       0.13; C       0.31; C       0.19; C       0.68; C       0.54; C      -0.17; 
@             C      -0.18; C      -0.22; O      -0.59; O      -0.56; H       0.19; H   _1  0.12; H   _2  0.12; H       0.17; H   _1  0.14; H   _2  0.14; 
@             H       0.17; H   _1  0.14; H   _2  0.14; H       0.11; 
 -----------------------------------------------------------------------------
  16  Screening settings (-IFTHRS, DIFDEN)  -12    F
      K-S energy, electrons, error :    -74.292627221866 102.0000051651    5.17D-06
@ 16  -679.743194552       1.12D-04  -4.00D-09    41  10
      Virial theorem: -V/T =      2.004312
@      MULPOP N      -0.35; N      -0.27; N      -0.46; N      -0.50; C       0.13; C       0.31; C       0.19; C       0.68; C       0.54; C      -0.17; 
@             C      -0.18; C      -0.22; O      -0.59; O      -0.56; H       0.19; H   _1  0.12; H   _2  0.12; H       0.17; H   _1  0.14; H   _2  0.14; 
@             H       0.17; H   _1  0.14; H   _2  0.14; H       0.11; 
 -----------------------------------------------------------------------------
  17  Screening settings (-IFTHRS, DIFDEN)  -12    F
      K-S energy, electrons, error :    -74.292626371586 102.0000051653    5.17D-06
@ 17  -679.743194552       8.18D-05  -3.33D-10    41  10
      Virial theorem: -V/T =      2.004312
@      MULPOP N      -0.35; N      -0.27; N      -0.46; N      -0.50; C       0.13; C       0.31; C       0.19; C       0.68; C       0.54; C      -0.17; 
@             C      -0.18; C      -0.22; O      -0.59; O      -0.56; H       0.19; H   _1  0.12; H   _2  0.12; H       0.17; H   _1  0.14; H   _2  0.14; 
@             H       0.17; H   _1  0.14; H   _2  0.14; H       0.11; 
 -----------------------------------------------------------------------------
  18  Screening settings (-IFTHRS, DIFDEN)  -12    F
      K-S energy, electrons, error :    -74.292624624047 102.0000051653    5.17D-06
@ 18  -679.743194553       2.51D-05  -3.47D-10    41  10
      Virial theorem: -V/T =      2.004312
@      MULPOP N      -0.35; N      -0.27; N      -0.46; N      -0.50; C       0.13; C       0.31; C       0.19; C       0.68; C       0.54; C      -0.17; 
@             C      -0.18; C      -0.22; O      -0.59; O      -0.56; H       0.19; H   _1  0.12; H   _2  0.12; H       0.17; H   _1  0.14; H   _2  0.14; 
@             H       0.17; H   _1  0.14; H   _2  0.14; H       0.11; 
 -----------------------------------------------------------------------------
  19  Screening settings (-IFTHRS, DIFDEN)  -12    F
      K-S energy, electrons, error :    -74.292623307188 102.0000051653    5.17D-06
@ 19  -679.743194553       2.13D-05  -1.39D-11    41  10
      Virial theorem: -V/T =      2.004312
@      MULPOP N      -0.35; N      -0.27; N      -0.46; N      -0.50; C       0.13; C       0.31; C       0.19; C       0.68; C       0.54; C      -0.17; 
@             C      -0.18; C      -0.22; O      -0.59; O      -0.56; H       0.19; H   _1  0.12; H   _2  0.12; H       0.17; H   _1  0.14; H   _2  0.14; 
@             H       0.17; H   _1  0.14; H   _2  0.14; H       0.11; 
 -----------------------------------------------------------------------------
  20  Screening settings (-IFTHRS, DIFDEN)  -12    F
      K-S energy, electrons, error :    -74.292621965409 102.0000051653    5.17D-06
@ 20  -679.743194553       4.68D-06  -2.80D-11    41  10

@ *** DIIS converged in  20 iterations !
@     Converged SCF energy, gradient:   -679.743194552769    4.68D-06
    - total time used in SIRFCK :              0.00 seconds


 *** SCF orbital energy analysis ***

 Only the five lowest virtual orbital energies printed in each symmetry.

 Number of electrons :  102
 Orbital occupations :   41   10

 Sym       Kohn-Sham orbital energies

  1    -19.10907751   -19.08992143   -14.41938892   -14.40692171   -14.38991930
       -14.31521569   -10.32364890   -10.31115518   -10.26610212   -10.24789753
       -10.24387358   -10.24288571   -10.22620382   -10.18128015    -1.15469753
        -1.03268657    -0.98619577    -0.95659185    -0.92741874    -0.88537272
        -0.80207558    -0.77001230    -0.74792306    -0.71688327    -0.67447843
        -0.65308747    -0.60163553    -0.58286435    -0.56042898    -0.51944887
        -0.49178418    -0.45134091    -0.44331747    -0.43136948    -0.41208358
        -0.39897028    -0.38928154    -0.35124799    -0.30388841    -0.24379947
        -0.21967467     0.06551514     0.08391666     0.10897460     0.11004118
         0.13463644

  2     -0.55054591    -0.48942224    -0.45188808    -0.44538878    -0.37898065
        -0.35300098    -0.32591162    -0.27904667    -0.23902213    -0.22544726
        -0.04607648     0.00564789     0.06492881     0.11774425     0.16513125

    E(LUMO) :    -0.04607648 au (symmetry 2)
  - E(HOMO) :    -0.21967467 au (symmetry 1)
  ------------------------------------------
    gap     :     0.17359820 au

 >>> Writing SIRIFC interface file <<<

 >>>> CPU and wall time for SCF :     118.246     138.548


                       .-----------------------------------.
                       | >>> Final results from SIRIUS <<< |
                       `-----------------------------------'


@    Spin multiplicity:           1
@    Spatial symmetry:            1
@    Total charge of molecule:    0

@    Final DFT energy:           -679.743194552769                 
@    Nuclear repulsion:           925.613037359559
@    Electronic energy:         -1605.356231912328

@    Final gradient norm:           0.000004680177

 
     Date and time (Linux)  : Thu Apr 28 13:31:17 2016
     Host name              : c21-3.local                             

 (Only coefficients >0.0100 are printed.)

 Molecular orbitals for symmetry species  1
 ------------------------------------------

    Orbital        37       38       39       40       41       42       43
   1 N   :1s     0.0078   0.0129   0.0181  -0.0025   0.0011   0.0742   0.0317
   2 N   :1s    -0.0185  -0.0307  -0.0462   0.0076  -0.0052  -0.1621  -0.0476
   3 N   :1s    -0.0237  -0.0643  -0.0834   0.0054   0.0188  -0.7981  -0.9243
   4 N   :2px    0.0400   0.0441  -0.0408  -0.0049  -0.0013   0.2446   0.0135
   5 N   :2py    0.0620   0.0305   0.1354  -0.0006   0.0075  -0.1106  -0.0643
   6 N   :2px    0.0212   0.0153  -0.0826  -0.0042  -0.0117   0.1976   0.1697
   7 N   :2py   -0.0108   0.0003   0.0735  -0.0122   0.0060  -0.0979   0.1912
   8 N   :3d2-   0.0069   0.0021   0.0033   0.0028  -0.0007  -0.0355   0.0004
   9 N   :3d0   -0.0018  -0.0019  -0.0037   0.0006  -0.0005  -0.0089   0.0109
  10 N   :3d2+   0.0027   0.0006  -0.0031   0.0027  -0.0017   0.0179  -0.0037
  11 N   :1s     0.0225   0.0147   0.0656  -0.0004   0.0078  -0.0050  -0.0056
  12 N   :1s    -0.0472  -0.0344  -0.1405  -0.0014  -0.0176   0.0047   0.0338
  13 N   :1s    -0.0912  -0.0025  -0.1773   0.0046  -0.0158   0.1695  -0.2823
  14 N   :2px    0.0225  -0.0139   0.0040   0.0179   0.0104   0.0631   0.0286
  15 N   :2py    0.0961   0.1314   0.4876  -0.0526   0.0518  -0.0018  -0.0226
  16 N   :2px    0.0256  -0.0178  -0.0012  -0.0229   0.0125   0.1816   0.1104
  17 N   :2py    0.0518   0.0872   0.3408  -0.0434   0.0443   0.0441  -0.2239
  19 N   :3d0   -0.0028  -0.0035  -0.0144   0.0011  -0.0020   0.0040   0.0083
  20 N   :3d2+  -0.0073  -0.0083  -0.0180   0.0015  -0.0003   0.0016  -0.0083
  21 N   :1s     0.0009  -0.0064  -0.0216   0.0112   0.0132  -0.0045   0.0055
  22 N   :1s    -0.0048   0.0145   0.0462  -0.0202  -0.0263   0.0125  -0.0005
  23 N   :1s     0.0153   0.0351   0.1502  -0.1231  -0.1448   0.0411  -0.1713
  24 N   :2px    0.0047  -0.0366   0.1331   0.0177   0.0625   0.0163   0.0139
  25 N   :2py   -0.0396  -0.0397   0.0562  -0.0219  -0.0311  -0.0065   0.0076
  26 N   :2px    0.0087   0.0065   0.1321   0.0218   0.0916   0.0046  -0.1033
  27 N   :2py   -0.0178  -0.0062  -0.0077  -0.0368  -0.0180  -0.0476   0.0227
  30 N   :3d2+  -0.0010  -0.0117   0.0050   0.0029   0.0026   0.0027  -0.0066
  31 N   :1s     0.0212  -0.0137  -0.0023  -0.0332  -0.0124  -0.0366  -0.0010
  32 N   :1s    -0.0450   0.0316   0.0051   0.0665   0.0252   0.0820   0.0009
  33 N   :1s    -0.1303   0.0585   0.0286   0.2766   0.1174   0.3789   0.0168
  34 N   :2px    0.0271  -0.0979   0.0533   0.0863  -0.0806   0.0866   0.0091
  35 N   :2py   -0.0636  -0.1392   0.0440   0.0054  -0.0989   0.0553   0.0192
  36 N   :2px   -0.0400  -0.0221   0.0231   0.0897  -0.0719   0.0565   0.0485
  37 N   :2py    0.0030  -0.0762   0.0323   0.0333  -0.1200   0.1528   0.0430
  38 N   :3d2-   0.0118  -0.0094   0.0018  -0.0031  -0.0043   0.0137   0.0035
  40 N   :3d2+  -0.0022  -0.0172   0.0038   0.0027   0.0018  -0.0167  -0.0037
  41 C   :1s     0.0307   0.0011   0.0273   0.0263  -0.0093  -0.0800   0.0007
  42 C   :1s    -0.0594  -0.0019  -0.0550  -0.0530   0.0185   0.1285  -0.0430
  43 C   :1s    -0.1660  -0.0496  -0.1970  -0.2161   0.0763   0.7031   0.2600
  44 C   :2px    0.0317  -0.0039   0.0751   0.0437  -0.0166   0.3020   0.0073
  45 C   :2py   -0.1403   0.0136   0.1758  -0.1124   0.0568   0.1237   0.0276
  46 C   :2px    0.0650   0.0276   0.0462   0.0717  -0.0555   0.3777   0.1239
  47 C   :2py   -0.0104   0.0308   0.1141  -0.0243   0.0533   0.2519  -0.0433
  48 C   :3d2-   0.0054   0.0013  -0.0041   0.0028  -0.0008   0.0231   0.0050
  49 C   :3d0    0.0005   0.0009   0.0000  -0.0013   0.0009   0.0159   0.0011
  50 C   :3d2+  -0.0100  -0.0084   0.0025  -0.0022   0.0010  -0.0337  -0.0067
  51 C   :1s    -0.0274  -0.0023  -0.0162  -0.0128  -0.0012  -0.0221   0.0077
  52 C   :1s     0.0614   0.0002   0.0458   0.0212   0.0042   0.0233  -0.0035
  53 C   :1s     0.1357  -0.0248  -0.0680   0.1027  -0.0218   0.3849   0.1124
  54 C   :2px    0.0410   0.0961   0.0640  -0.0237  -0.0217   0.0204  -0.0111
  55 C   :2py    0.0957   0.0224  -0.1527   0.0535  -0.0387   0.0645   0.0604
  56 C   :2px    0.0569   0.0098   0.0227  -0.0285   0.0117   0.1339  -0.1699
  57 C   :2py    0.0532   0.0760   0.0660   0.0831  -0.0052   0.0306  -0.1443
  60 C   :3d2+   0.0031   0.0043   0.0333  -0.0029   0.0017   0.0023   0.0067
  61 C   :1s    -0.0016  -0.0044  -0.0273   0.0052  -0.0065  -0.0328   0.0313
  62 C   :1s     0.0036   0.0109   0.0727  -0.0117   0.0140   0.0643  -0.0999
  63 C   :1s    -0.0517  -0.0101   0.0057   0.0108  -0.0042   0.3213   0.1284
  64 C   :2px    0.0185   0.0099  -0.0415   0.0050  -0.0156   0.1350  -0.1465
  65 C   :2py   -0.0529  -0.0217  -0.1129  -0.0041  -0.0096   0.0036   0.1059
  66 C   :2px    0.0390   0.0251   0.0841  -0.0263   0.0194   0.5304  -0.7683
  67 C   :2py   -0.0136   0.0089   0.0417  -0.0319   0.0111   0.1046   0.6107
  68 C   :3d2-  -0.0006  -0.0005  -0.0104   0.0007  -0.0008   0.0303   0.0020
  70 C   :3d2+   0.0074   0.0092   0.0337  -0.0031   0.0024  -0.0040   0.0023
  71 C   :1s    -0.0176   0.0211   0.0001   0.0071   0.0010  -0.0114  -0.0039
  72 C   :1s     0.0420  -0.0454   0.0056  -0.0190  -0.0070   0.0271  -0.0020
  73 C   :1s     0.0632  -0.0379   0.0240   0.0222   0.0229   0.1289   0.0203
  74 C   :2px   -0.0478   0.2218  -0.0575  -0.0263   0.0103  -0.0074   0.0025
  75 C   :2py    0.0551   0.1378  -0.0150  -0.0552  -0.0133   0.0248   0.0255
  76 C   :2px    0.0059   0.0140  -0.0089   0.0068   0.0052   0.0283   0.0263
  77 C   :2py    0.0331   0.0315  -0.0213  -0.0909  -0.1755   0.0411   0.0809
  78 C   :3d2-  -0.0000   0.0064  -0.0017   0.0170   0.0286   0.0017   0.0005
  80 C   :3d2+  -0.0004  -0.0135   0.0095  -0.0023  -0.0106  -0.0034   0.0019
  81 C   :1s    -0.0597   0.0081  -0.0075   0.0081   0.0021   0.0380   0.0043
  82 C   :1s     0.1344  -0.0240   0.0190  -0.0211  -0.0024  -0.1111  -0.0358
  83 C   :1s     0.1846  -0.0337   0.0396  -0.0481  -0.0364  -0.2539   0.0470
  84 C   :2px   -0.0467   0.1453   0.0036   0.0016   0.0370  -0.0586  -0.0230
  85 C   :2py    0.3103   0.1078  -0.0935   0.0412   0.0053   0.1857   0.0473
  86 C   :2px   -0.0582   0.0538   0.0279   0.1314  -0.0713   0.0306   0.0584
  87 C   :2py   -0.0270   0.0060  -0.0156  -0.0301   0.0229   0.3271   0.1435
  88 C   :3d2-   0.0077  -0.0010   0.0020   0.0329  -0.0141  -0.0050  -0.0027
  90 C   :3d2+  -0.0103  -0.0055   0.0111   0.0100  -0.0098   0.0355   0.0057
  91 C   :1s     0.0020   0.0053  -0.0008  -0.0136  -0.0191   0.0305   0.0068
  92 C   :1s    -0.0105  -0.0056   0.0011   0.0314   0.0430  -0.0547  -0.0130
  93 C   :1s    -0.0159  -0.0353   0.0023   0.0655   0.0799  -0.3415  -0.0675
  94 C   :2px   -0.1421   0.1919  -0.0229  -0.0817  -0.1124  -0.0835  -0.0121
  95 C   :2py   -0.0483   0.2204  -0.0093  -0.0277  -0.1288   0.0686   0.0054
  96 C   :2px   -0.0691   0.1096  -0.0248  -0.1167  -0.0771  -0.0985   0.0117
  97 C   :2py   -0.0147   0.0998  -0.0080  -0.0241  -0.0356   0.1444   0.0129
  98 C   :3d2-   0.0089  -0.0101   0.0017   0.0000  -0.0002   0.0022   0.0006
 102 C   :1s     0.0091   0.0174  -0.0015  -0.0097  -0.0143  -0.0029   0.0010
 103 C   :1s     0.0214   0.0202  -0.0001  -0.0350  -0.0493  -0.0354  -0.1058
 104 C   :2px    0.0156   0.0365  -0.0027   0.0262   0.0473  -0.0006   0.0003
 105 C   :2py    0.0254   0.0545  -0.0725   0.0021  -0.0032  -0.0184   0.0363
 106 C   :2px   -0.0033   0.0247  -0.0404   0.0313   0.0510  -0.0219  -0.0003
 107 C   :2py    0.0064   0.0289  -0.0631   0.0221   0.0366  -0.0417   0.0829
 111 C   :1s    -0.0046  -0.0018   0.0014   0.0023  -0.0019  -0.0022   0.1019
 112 C   :1s     0.0096   0.0042   0.0019  -0.0012   0.0021  -0.0176  -0.1391
 113 C   :1s     0.0453   0.0190   0.0032  -0.0410   0.0325   0.0901  -1.7705
 114 C   :2px   -0.0660  -0.0323  -0.0124   0.0052  -0.0046   0.0817  -0.2101
 115 C   :2py   -0.0112  -0.0173  -0.0503  -0.0216   0.0088  -0.1320  -0.0850
 116 C   :2px   -0.0354  -0.0205  -0.0225  -0.0035  -0.0004   0.1107  -0.5858
 117 C   :2py    0.0126  -0.0092  -0.0345  -0.0534   0.0309  -0.3363  -0.2767
 118 C   :3d2-   0.0012   0.0008  -0.0010   0.0012  -0.0007  -0.0016  -0.0107
 120 C   :3d2+   0.0005  -0.0000   0.0062   0.0011  -0.0001  -0.0185  -0.0063
 121 O   :1s     0.0222  -0.0580   0.0081   0.0028   0.0053   0.0038   0.0010
 122 O   :1s    -0.0521   0.1358  -0.0167  -0.0058  -0.0120  -0.0084  -0.0050
 123 O   :1s    -0.0772   0.1994  -0.0360  -0.0139  -0.0346  -0.0261   0.0082
 124 O   :2px    0.0681  -0.2995   0.0882   0.0382  -0.0069  -0.0112   0.0039
 125 O   :2py    0.0797  -0.0885   0.0237  -0.2697  -0.5451  -0.0050  -0.0047
 126 O   :2px    0.0417  -0.1946   0.0553   0.0208  -0.0151  -0.0087   0.0108
 127 O   :2py    0.0500  -0.0638   0.0199  -0.1886  -0.3914  -0.0172  -0.0166
 128 O   :3d2-   0.0040  -0.0026   0.0012  -0.0106  -0.0188  -0.0009  -0.0007
 131 O   :1s     0.0707   0.0196  -0.0076   0.0004  -0.0017   0.0183   0.0121
 132 O   :1s    -0.1624  -0.0456   0.0168  -0.0019   0.0054  -0.0439  -0.0313
 133 O   :1s    -0.2298  -0.0652   0.0224   0.0099   0.0049  -0.1795  -0.1152
 134 O   :2px   -0.1386   0.0193   0.0900   0.5180  -0.2920  -0.0336  -0.0421
 135 O   :2py   -0.3937  -0.1443   0.0921  -0.1666   0.0457   0.0865   0.0364
 136 O   :2px   -0.0855   0.0082   0.0603   0.3636  -0.2076   0.0062  -0.0022
 137 O   :2py   -0.2444  -0.0909   0.0643  -0.1211   0.0293   0.1269   0.0743
 138 O   :3d2-   0.0100  -0.0013  -0.0045  -0.0164   0.0090  -0.0013  -0.0011
 140 O   :3d2+  -0.0132  -0.0051   0.0023  -0.0093   0.0022   0.0075   0.0071
 141 H   :1s     0.0886  -0.1769   0.0163   0.0380   0.0680   0.0339   0.0112
 142 H   :1s     0.0609  -0.1006  -0.0010  -0.0301   0.0140   0.2033   0.0659
 145 H   :1s    -0.0200   0.0846  -0.0047  -0.0038  -0.0353  -0.0135  -0.0057
 146 H   :1s    -0.0183   0.0751  -0.0049  -0.0334  -0.0427   0.0229   0.0141
 150 H   :1s    -0.0110  -0.0239   0.0088  -0.0122  -0.0169  -0.0035   0.0065
 151 H   :1s    -0.0249  -0.0039  -0.0160   0.0343   0.0757  -0.0124   0.0476
 154 H   :1s    -0.0003  -0.0009   0.0153   0.0035   0.0068   0.0018   0.0006
 155 H   :1s    -0.0051  -0.0085  -0.0069   0.0122   0.0117   0.0009   0.0799
 159 H   :1s     0.0083  -0.0009  -0.0350  -0.0111   0.0037   0.0504   0.0455
 160 H   :1s    -0.0311  -0.0045  -0.0234   0.0715  -0.0509   0.5200   0.7414
 163 H   :1s    -0.0187  -0.0085   0.0074   0.0031  -0.0010  -0.0201   0.0263
 164 H   :1s    -0.0187  -0.0091   0.0158   0.0060  -0.0027  -0.2608   1.0262
 168 H   :1s     0.0348   0.0304   0.1062  -0.0068   0.0045  -0.0903  -0.0192
 169 H   :1s     0.0287   0.0301   0.1153  -0.0071   0.0008  -0.8388   0.9523

 Molecular orbitals for symmetry species  2
 ------------------------------------------

    Orbital         6        7        8        9       10       11       12
   1 N   :2pz   -0.1791   0.3437  -0.1639  -0.0088  -0.0581   0.2241  -0.1293
   2 N   :2pz   -0.1280   0.2492  -0.1447  -0.0075  -0.0263   0.2977  -0.1492
   3 N   :3d1-   0.0005  -0.0128  -0.0066   0.0054   0.0117   0.0090   0.0029
   4 N   :3d1+   0.0076   0.0025   0.0098  -0.0062  -0.0149  -0.0020  -0.0137
   5 N   :2pz    0.1837  -0.2020   0.2419  -0.0243  -0.0042  -0.0393   0.0632
   6 N   :2pz    0.1202  -0.1422   0.1783  -0.0262   0.0054  -0.0237   0.0670
   7 N   :3d1-   0.0107  -0.0114   0.0109  -0.0007   0.0021   0.0032   0.0016
   8 N   :3d1+  -0.0027   0.0126   0.0102  -0.0057  -0.0120  -0.0267   0.0096
   9 N   :2pz    0.1192   0.0549  -0.2823  -0.0982  -0.2487  -0.1512  -0.2285
  10 N   :2pz    0.0853   0.0241  -0.2320  -0.0720  -0.2336  -0.1599  -0.2467
  11 N   :3d1-   0.0051   0.0044  -0.0049  -0.0005  -0.0028   0.0029   0.0200
  12 N   :3d1+   0.0018  -0.0137  -0.0054   0.0051   0.0058   0.0147  -0.0265
  13 N   :2pz   -0.1082   0.0196   0.2549   0.3246  -0.1721   0.2059  -0.1543
  14 N   :2pz   -0.0767   0.0046   0.1871   0.2919  -0.1547   0.1924  -0.1539
  15 N   :3d1-  -0.0004  -0.0089  -0.0064  -0.0042   0.0001  -0.0083  -0.0276
  16 N   :3d1+  -0.0139  -0.0067   0.0023   0.0053  -0.0026  -0.0162  -0.0123
  17 C   :2pz   -0.2052  -0.0694  -0.2237   0.1325   0.2922  -0.1204   0.2386
  18 C   :2pz   -0.1298  -0.0461  -0.1568   0.1167   0.2295  -0.1527   0.3057
  19 C   :3d1-  -0.0078   0.0002   0.0063  -0.0054  -0.0068  -0.0263  -0.0026
  20 C   :3d1+   0.0001   0.0157  -0.0055  -0.0028  -0.0020   0.0189   0.0034
  21 C   :2pz    0.1102  -0.2373  -0.0990   0.0732   0.1576   0.2946  -0.1217
  22 C   :2pz    0.0507  -0.1297  -0.0819   0.0705   0.1120   0.3082  -0.1413
  23 C   :3d1-  -0.0150   0.0064  -0.0137   0.0072   0.0135  -0.0024   0.0171
  24 C   :3d1+   0.0026  -0.0100   0.0190   0.0034   0.0119   0.0059   0.0169
  25 C   :2pz    0.0165   0.1469   0.1532  -0.0846  -0.1764  -0.2635   0.0289
  26 C   :2pz    0.0157   0.0794   0.1126  -0.0582  -0.1355  -0.3366   0.0736
  27 C   :3d1-  -0.0146   0.0251  -0.0160   0.0003  -0.0036   0.0163  -0.0116
  28 C   :3d1+  -0.0071   0.0075  -0.0105  -0.0000  -0.0018  -0.0024  -0.0052
  29 C   :2pz    0.0517   0.2060   0.0943  -0.0465  -0.0092   0.0144   0.5066
  30 C   :2pz    0.0231   0.1320   0.0791  -0.0438   0.0538   0.0127   0.4683
  31 C   :3d1-  -0.0074  -0.0020   0.0189   0.0179   0.0009   0.0191   0.0045
  32 C   :3d1+   0.0008  -0.0047  -0.0162   0.0109  -0.0299  -0.0021   0.0140
  33 C   :2pz   -0.3031  -0.1706   0.0377  -0.0360  -0.0029  -0.3627  -0.1890
  34 C   :2pz   -0.1728  -0.1070   0.0238  -0.0713  -0.0230  -0.2854  -0.1829
  35 C   :3d1-   0.0024  -0.0031   0.0029  -0.0306  -0.0121   0.0216   0.0013
  36 C   :3d1+  -0.0029  -0.0030  -0.0143  -0.0133   0.0127  -0.0099   0.0198
  37 C   :2pz    0.1805  -0.0184  -0.1271  -0.0648   0.0313  -0.0099   0.0124
  38 C   :2pz    0.0960   0.0200  -0.0341  -0.0562   0.0717   0.0359  -0.0462
  39 C   :3d1-   0.0108  -0.0028  -0.0145  -0.0123   0.0053  -0.0106   0.0060
  41 C   :2pz   -0.0970  -0.0079   0.0753   0.0254   0.0390  -0.0091   0.0001
  42 C   :2pz   -0.0445   0.0204   0.0443  -0.0143   0.0404  -0.0554  -0.0423
  43 C   :3d1-   0.0078   0.0026  -0.0143  -0.0054  -0.0126  -0.0092  -0.0153
  45 C   :2pz    0.0906  -0.1329   0.0368   0.0069   0.0173   0.0243  -0.0144
  46 C   :2pz    0.0290  -0.0660   0.0048   0.0023   0.0153   0.0602  -0.0341
  48 C   :3d1+   0.0105  -0.0182   0.0086  -0.0000   0.0024  -0.0127   0.0076
  49 O   :2pz    0.0430   0.1975   0.2023  -0.2243   0.4170  -0.0275  -0.2995
  50 O   :2pz    0.0305   0.1311   0.1438  -0.1687   0.3135  -0.0222  -0.2961
  52 O   :3d1+   0.0029   0.0118   0.0101  -0.0097   0.0156  -0.0002   0.0043
  53 O   :2pz   -0.2254  -0.1729   0.0383  -0.4566  -0.1325   0.2849   0.1073
  54 O   :2pz   -0.1416  -0.1132   0.0252  -0.3362  -0.0968   0.2564   0.1065
  55 O   :3d1-   0.0146   0.0100  -0.0021   0.0180   0.0047   0.0005   0.0014
  58 H   :1s     0.0997  -0.0143  -0.0886  -0.0586   0.0252  -0.0367   0.0307
  59 H   :1s     0.0757  -0.0335  -0.1055  -0.0813   0.0011  -0.0863   0.0844
  64 H   :1s    -0.0582  -0.0105   0.0615   0.0238   0.0428   0.0248   0.0396
  65 H   :1s    -0.0511  -0.0314   0.0747   0.0432   0.0515   0.0961   0.1102
  70 H   :1s     0.0613  -0.0953   0.0353   0.0036   0.0124  -0.0323   0.0204
  71 H   :1s     0.0692  -0.0980   0.0534   0.0027   0.0052  -0.1363   0.0768
  75 H   :2pz    0.0005   0.0031   0.0038  -0.0024  -0.0048  -0.0104   0.0014



 >>>> Total CPU  time used in SIRIUS :    119.22 seconds
 >>>> Total wall time used in SIRIUS :    140.48 seconds

 
     Date and time (Linux)  : Thu Apr 28 13:31:18 2016
     Host name              : c21-3.local                             


                     .---------------------------------------.
                     | End of Wave Function Section (SIRIUS) |
                     `---------------------------------------'


     Order of analytical energy-derivatives available:   1
     This will be the default.

 Center of mass dipole origin  :   -0.000000    0.000000    0.000000

 Center of mass gauge origin   :   -0.000000    0.000000    0.000000


                 .------------------------------------------------.
                 | Starting in Static Property Section (ABACUS) - |
                 `------------------------------------------------'


 
     Date and time (Linux)  : Thu Apr 28 13:31:21 2016
     Host name              : c21-3.local                             


   ***************************************************************************
   ************************ FINAL RESULTS from ABACUS ************************
   ***************************************************************************


 
     Date and time (Linux)  : Thu Apr 28 13:31:32 2016
     Host name              : c21-3.local                             


                             Molecular geometry (au)
                             -----------------------

 N          4.3675264763            0.1603984087            0.0000000000
 N          2.7997025035           -3.1812816214            0.0000000000
 N         -1.5304360572           -2.6572294812            0.0000000000
 N         -2.6871815154            1.7946344493            0.0000000000
 C          1.6660944294            0.8287003778            0.0000000000
 C          1.0667420403           -1.8450493960            0.0000000000
 C          4.6480562205           -2.0098489160            0.0000000000
 C         -3.2578712569           -0.8660559207            0.0000000000
 C         -0.1803372946            2.8532619330            0.0000000000
 C         -4.8574017336            3.4363107121            0.0000000000
 C         -2.1256553346           -5.3125386993            0.0000000000
 C          6.5302919131            1.8118824924            0.0000000000
 O         -5.8971636173           -1.0488660319            0.0000000000
 O          0.3983484807            5.4348130199            0.0000000000
 H         -6.5749927755            2.3027844123            0.0000000000
 H   _1    -4.8192216515            4.6238328356            1.6802783299
 H   _2    -4.8192216515            4.6238328356           -1.6802783299
 H         -4.1689360422           -5.5575058662            0.0000000000
 H   _1    -1.3290842744           -6.1940933753            1.6802783299
 H   _2    -1.3290842744           -6.1940933753           -1.6802783299
 H          5.8979813090            3.7702456686            0.0000000000
 H   _1     7.6642421898            1.4571682696            1.6802783299
 H   _2     7.6642421898            1.4571682696           -1.6802783299
 H          6.5474623256           -2.8018463403            0.0000000000





                        Molecular wave function and energy
                        ----------------------------------

     Spin multiplicity  1     State number       1     Total charge       0

     Total energy       -679.7431945528 au (Hartrees)
                        -18496.75323108 eV
                          -1784665.4822 kJ/mol


                             Relativistic corrections
                             ------------------------

     Darwin correction:                          1.3124241633 au
     Mass-velocity correction:                  -1.6464057785 au

     Total relativistic correction:             -0.3339816153 au (0.0491%)
     Non-relativistic + relativistic energy:  -680.0771761680 au




                             Molecular gradient (au)
                             -----------------------

                         N   x      0.0318305291
                         N   y     -0.3683958716
                         N   x      0.0503066487
                         N   y      0.3692400813
                         N   x     -0.0381398273
                         N   y     -0.0108788633
                         N   x     -0.0567678410
                         N   y      0.0154696470
                         C   x     -0.0209007633
                         C   y      0.0680437120
                         C   x      0.2840248778
                         C   y     -0.1838838738
                         C   x     -0.2930075621
                         C   y      0.1425949948
                         C   x      0.1786963945
                         C   y     -0.0632731202
                         C   x     -0.0288273736
                         C   y     -0.1103703398
                         C   x      0.0102235207
                         C   y     -0.0266643686
                         C   x      0.0070104360
                         C   y      0.0112176031
                         C   x     -0.0044821645
                         C   y     -0.0256864801
                         O   x     -0.1342656127
                         O   y      0.0514409599
                         O   x      0.0383786064
                         O   y      0.1452946747
                         H   x     -0.0080890901
                         H   y     -0.0041624673
                         H   x     -0.0048310011
                         H   y     -0.0097402409
                         H   z     -0.0021451843
                         H   x      0.0008809676
                         H   y     -0.0042912947
                         H   x     -0.0036769013
[...]
 H   _2    -1.6232588253           -6.3696184532           -1.6779459224
 H          4.9742338367            4.0849993781            0.0000000000
 H   _1     7.2940530427            2.3113778377            1.6863375773
 H   _2     7.2940530427            2.3113778377           -1.6863375773
 H          6.8584990136           -2.9433540153            0.0000000000





                             Optimization information
                             ------------------------

 Iteration number               :      12
 End of optimization            :       T 
 Energy at this geometry is     :    -679.998085
 Energy change from last geom.  :      -0.000000
 Norm of gradient               :       0.000070
 Norm of step                   :       0.000283
 Updated trust radius           :       1.244161
 Total Hessian index            :       0



 Center of mass dipole origin  :    0.043343   -0.176242    0.000000

 Center of mass gauge origin   :    0.043343   -0.176242    0.000000


                 .------------------------------------------------.
                 | Starting in Static Property Section (ABACUS) - |
                 `------------------------------------------------'


 
     Date and time (Linux)  : Thu Apr 28 13:58:00 2016
     Host name              : c21-3.local                             


   ***************************************************************************
   ************************ FINAL RESULTS from ABACUS ************************
   ***************************************************************************


 
     Date and time (Linux)  : Thu Apr 28 13:58:00 2016
     Host name              : c21-3.local                             


                             Molecular geometry (au)
                             -----------------------

 N          4.3522364200            0.2200386230            0.0000000000
 N          2.9037201552           -3.7809098554            0.0000000000
 N         -1.5930977670           -2.7637783346            0.0000000000
 N         -2.5236564639            1.6453640388            0.0000000000
 C          1.7335600087            0.3481692033            0.0000000000
 C          0.9302245569           -2.1348061818            0.0000000000
 C          4.9234548638           -2.2816247539            0.0000000000
 C         -3.4250662616           -0.8680084822            0.0000000000
 C          0.0239917181            2.4503475603            0.0000000000
 C         -4.4167898306            3.6739947587            0.0000000000
 C         -2.3640372502           -5.4184123404            0.0000000000
 C          6.1002307947            2.3601576943            0.0000000000
 O         -5.6860618895           -1.3534101319            0.0000000000
 O          0.5726553480            4.7095297457            0.0000000000
 H         -6.2757112380            2.8008583111            0.0000000000
 H   _1    -4.1683219496            4.8593160431            1.6721921767
 H   _2    -4.1683219496            4.8593160431           -1.6721921767
 H         -4.4192279515           -5.4646814120            0.0000000000
 H   _1    -1.6232588253           -6.3696184532            1.6779459224
 H   _2    -1.6232588253           -6.3696184532           -1.6779459224
 H          4.9742338367            4.0849993781            0.0000000000
 H   _1     7.2940530427            2.3113778377            1.6863375773
 H   _2     7.2940530427            2.3113778377           -1.6863375773
 H          6.8584990136           -2.9433540153            0.0000000000





                        Molecular wave function and energy
                        ----------------------------------

     Spin multiplicity  1     State number       1     Total charge       0

     Total energy       -679.9980849800 au (Hartrees)
                        -18503.68915243 eV
                          -1785334.6969 kJ/mol


                             Relativistic corrections
                             ------------------------

     Darwin correction:                          1.3116101700 au
     Mass-velocity correction:                  -1.6450719313 au

     Total relativistic correction:             -0.3334617613 au (0.0490%)
     Non-relativistic + relativistic energy:  -680.3315467413 au




                                  Dipole moment
                                  -------------

                 au               Debye          C m (/(10**-30)
              1.449813           3.685057          12.292027


                             Dipole moment components
                             ------------------------

                 au               Debye          C m (/(10**-30)

      x      1.44367485         3.66945523        12.23998514
      y     -0.13327025        -0.33873915        -1.12991219


   Units:   1 a.u. =   2.54175 Debye 
            1 a.u. =   8.47835 (10**-30) C m (SI)



  Max    interatomic separation is    7.5860 Angstrom (   14.3354 Bohr)
  between atoms   24 and   15, "H     " and "H     ".

  Min HX interatomic separation is    1.0822 Angstrom (    2.0451 Bohr)

  Min YX interatomic separation is    1.2237 Angstrom (    2.3125 Bohr)


  Bond distances (Angstrom):
  --------------------------

                  atom 1     atom 2       distance
                  ------     ------       --------
  bond distance:  C          N            1.387402
  bond distance:  C          N            1.359928
  bond distance:  C          N            1.376142
  bond distance:  C          C            1.380992
  bond distance:  C          N            1.357895
  bond distance:  C          N            1.331087
  bond distance:  C          N            1.395067
  bond distance:  C          N            1.412971
  bond distance:  C          N            1.413855
  bond distance:  C          C            1.433843
  bond distance:  C          N            1.468340
  bond distance:  C          N            1.462812
  bond distance:  C          N            1.462253
  bond distance:  O          C            1.223729
  bond distance:  O          C            1.230259
  bond distance:  H          C            1.086806
  bond distance:  H   _1     C            1.092587
  bond distance:  H   _2     C            1.092587
  bond distance:  H          C            1.087836
  bond distance:  H   _1     C            1.093369
  bond distance:  H   _2     C            1.093369
  bond distance:  H          C            1.090021
  bond distance:  H   _1     C            1.093660
  bond distance:  H   _2     C            1.093660
  bond distance:  H          C            1.082201


  Bond angles (degrees):
  ----------------------

                  atom 1     atom 2     atom 3         angle
                  ------     ------     ------         -----
  bond angle:     C          N          C            105.663
  bond angle:     C          N          C            126.440
  bond angle:     C          N          C            127.897
  bond angle:     C          N          C            103.581
  bond angle:     C          N          C            120.023
  bond angle:     C          N          C            120.190
  bond angle:     C          N          C            119.787
  bond angle:     C          N          C            127.265
  bond angle:     C          N          C            117.249
  bond angle:     C          N          C            115.486
  bond angle:     N          C          C            105.127
  bond angle:     N          C          C            131.920
  bond angle:     C          C          C            122.952
  bond angle:     N          C          N            126.172
  bond angle:     N          C          C            111.903
  bond angle:     N          C          C            121.925
  bond angle:     N          C          N            113.725
  bond angle:     N          C          H            121.741
  bond angle:     N          C          H            124.534
  bond angle:     N          C          N            116.250
  bond angle:     N          C          O            121.903
  bond angle:     N          C          O            121.847
  bond angle:     N          C          C            111.584
  bond angle:     N          C          O            121.186
  bond angle:     C          C          O            127.230
  bond angle:     N          C          H            107.862
  bond angle:     N          C          H   _1       109.732
  bond angle:     N          C          H   _2       109.732
  bond angle:     H          C          H   _1       110.670
  bond angle:     H          C          H   _2       110.670
  bond angle:     H   _1     C          H   _2       108.172
  bond angle:     N          C          H            107.484
  bond angle:     N          C          H   _1       110.006
  bond angle:     N          C          H   _2       110.006
  bond angle:     H          C          H   _1       110.370
  bond angle:     H          C          H   _2       110.370
  bond angle:     H   _1     C          H   _2       108.604
  bond angle:     N          C          H            107.622
  bond angle:     N          C          H   _1       110.312
  bond angle:     N          C          H   _2       110.312
  bond angle:     H          C          H   _1       109.605
  bond angle:     H          C          H   _2       109.605
  bond angle:     H   _1     C          H   _2       109.363




 CPU time statistics for ABACUS
 ------------------------------

 REST       00:00:01     198 %



 >>>> Total CPU  time used in ABACUS:   0.53 seconds
 >>>> Total wall time used in ABACUS:   0.53 seconds


                   .-------------------------------------------.
                   | End of Static Property Section (ABACUS) - |
                   `-------------------------------------------'



          <<<<<<<<<<<<<<<<<<<<<<<<<<<<<<<<<<<<<<<<<<<<<<<<<<<<<<<<<<<<<<
          <<<<<<<<<<<<<<<<<<<<  End of Optimization <<<<<<<<<<<<<<<<<<<<
          <<<<<<<<<<<<<<<<<<<<<<<<<<<<<<<<<<<<<<<<<<<<<<<<<<<<<<<<<<<<<<



                              Final geometry (bohr)
                              ---------------------

 N          4.3522364200            0.2200386230            0.0000000000
 N          2.9037201552           -3.7809098554            0.0000000000
 N         -1.5930977670           -2.7637783346            0.0000000000
 N         -2.5236564639            1.6453640388            0.0000000000
 C          1.7335600087            0.3481692033            0.0000000000
 C          0.9302245569           -2.1348061818            0.0000000000
 C          4.9234548638           -2.2816247539            0.0000000000
 C         -3.4250662616           -0.8680084822            0.0000000000
 C          0.0239917181            2.4503475603            0.0000000000
 C         -4.4167898306            3.6739947587            0.0000000000
 C         -2.3640372502           -5.4184123404            0.0000000000
 C          6.1002307947            2.3601576943            0.0000000000
 O         -5.6860618895           -1.3534101319            0.0000000000
 O          0.5726553480            4.7095297457            0.0000000000
 H         -6.2757112380            2.8008583111            0.0000000000
 H   _1    -4.1683219496            4.8593160431            1.6721921767
 H   _2    -4.1683219496            4.8593160431           -1.6721921767
 H         -4.4192279515           -5.4646814120            0.0000000000
 H   _1    -1.6232588253           -6.3696184532            1.6779459224
 H   _2    -1.6232588253           -6.3696184532           -1.6779459224
 H          4.9742338367            4.0849993781            0.0000000000
 H   _1     7.2940530427            2.3113778377            1.6863375773
 H   _2     7.2940530427            2.3113778377           -1.6863375773
 H          6.8584990136           -2.9433540153            0.0000000000





                      Final geometry (xyz format; angstrom)
                      -------------------------------------

24

N        2.3031043295            0.1164394248            0.0000000000
N        1.5365825327           -2.0007713315            0.0000000000
N       -0.8430310329           -1.4625285104            0.0000000000
N       -1.3354614886            0.8706891528            0.0000000000
C        0.9173604502            0.1842432079            0.0000000000
C        0.4922536364           -1.1296907809            0.0000000000
C        2.6053801123           -1.2073838234            0.0000000000
C       -1.8124670111           -0.4593303075            0.0000000000
C        0.0126958704            1.2966680874            0.0000000000
C       -2.3372645232            1.9441942989            0.0000000000
C       -1.2509946383           -2.8673003292            0.0000000000
C        3.2281031172            1.2489416657            0.0000000000
O       -3.0089343711           -0.7161937987            0.0000000000
O        0.3030361598            2.4921758150            0.0000000000
H       -3.3209633687            1.4821503889            0.0000000000
H       -2.2057809830            2.5714393101            0.8848859920
H       -2.2057809830            2.5714393101           -0.8848859920
H       -2.3385547212           -2.8917848675            0.0000000000
H       -0.8589915776           -3.3706569269            0.8879307431
H       -0.8589915776           -3.3706569269           -0.8879307431
H        2.6322511876            2.1616885770            0.0000000000
H        3.8598466445            1.2231284773            0.8923714156
H        3.8598466445            1.2231284773           -0.8923714156
H        3.6293613783           -1.5575558682            0.0000000000



@ Iter      Energy        Change       GradNorm  Index   StepLen    TrustRad #Rej
@ -------------------------------------------------------------------------------
@   0     -679.743195     0.000000     0.774905    0    0.500000    0.500000   0 
@   1     -679.865020    -0.121825     0.470948    0    0.600000    0.600000   0 
@   2     -679.947546    -0.082527     0.215703    0    0.864001    0.864000   0 
@   3     -679.984600    -0.037054     0.096026    0    0.828000*   1.244161   0 
@   4     -679.995882    -0.011282     0.038837    0    0.396304*   1.244161   0 
@   5     -679.997751    -0.001869     0.018836    0    0.104335*   1.244161   0 
@   6     -679.998026    -0.000275     0.007273    0    0.035065*   1.244161   0 
@   7     -679.998073    -0.000047     0.003372    0    0.016399*   1.244161   0 
@   8     -679.998082    -0.000009     0.001605    0    0.008950*   1.244161   0 
@   9     -679.998085    -0.000002     0.000536    0    0.002449*   1.244161   0 
@  10     -679.998085    -0.000000     0.000257    0    0.001376*   1.244161   0 
@  11     -679.998085    -0.000000     0.000132    0    0.000704*   1.244161   0 
@  12     -679.998085    -0.000000     0.000070    0    0.000283*   1.244161   0 

@  *) Newton step taken.

  Max    interatomic separation is    7.5860 Angstrom (   14.3354 Bohr)
  between atoms   24 and   15, "H     " and "H     ".

  Min HX interatomic separation is    1.0822 Angstrom (    2.0451 Bohr)

  Min YX interatomic separation is    1.2237 Angstrom (    2.3125 Bohr)


  Bond distances (Angstrom):
  --------------------------

                  atom 1     atom 2       distance
                  ------     ------       --------
  bond distance:  C          N            1.387402
  bond distance:  C          N            1.359928
  bond distance:  C          N            1.376142
  bond distance:  C          C            1.380992
  bond distance:  C          N            1.357895
  bond distance:  C          N            1.331087
  bond distance:  C          N            1.395067
  bond distance:  C          N            1.412971
  bond distance:  C          N            1.413855
  bond distance:  C          C            1.433843
  bond distance:  C          N            1.468340
  bond distance:  C          N            1.462812
  bond distance:  C          N            1.462253
  bond distance:  O          C            1.223729
  bond distance:  O          C            1.230259
  bond distance:  H          C            1.086806
  bond distance:  H   _1     C            1.092587
  bond distance:  H   _2     C            1.092587
  bond distance:  H          C            1.087836
  bond distance:  H   _1     C            1.093369
  bond distance:  H   _2     C            1.093369
  bond distance:  H          C            1.090021
  bond distance:  H   _1     C            1.093660
  bond distance:  H   _2     C            1.093660
  bond distance:  H          C            1.082201


  Bond angles (degrees):
  ----------------------

                  atom 1     atom 2     atom 3         angle
                  ------     ------     ------         -----
  bond angle:     C          N          C            105.663
  bond angle:     C          N          C            126.440
  bond angle:     C          N          C            127.897
  bond angle:     C          N          C            103.581
  bond angle:     C          N          C            120.023
  bond angle:     C          N          C            120.190
  bond angle:     C          N          C            119.787
  bond angle:     C          N          C            127.265
  bond angle:     C          N          C            117.249
  bond angle:     C          N          C            115.486
  bond angle:     N          C          C            105.127
  bond angle:     N          C          C            131.920
  bond angle:     C          C          C            122.952
  bond angle:     N          C          N            126.172
  bond angle:     N          C          C            111.903
  bond angle:     N          C          C            121.925
  bond angle:     N          C          N            113.725
  bond angle:     N          C          H            121.741
  bond angle:     N          C          H            124.534
  bond angle:     N          C          N            116.250
  bond angle:     N          C          O            121.903
  bond angle:     N          C          O            121.847
  bond angle:     N          C          C            111.584
  bond angle:     N          C          O            121.186
  bond angle:     C          C          O            127.230
  bond angle:     N          C          H            107.862
  bond angle:     N          C          H   _1       109.732
  bond angle:     N          C          H   _2       109.732
  bond angle:     H          C          H   _1       110.670
  bond angle:     H          C          H   _2       110.670
  bond angle:     H   _1     C          H   _2       108.172
  bond angle:     N          C          H            107.484
  bond angle:     N          C          H   _1       110.006
  bond angle:     N          C          H   _2       110.006
  bond angle:     H          C          H   _1       110.370
  bond angle:     H          C          H   _2       110.370
  bond angle:     H   _1     C          H   _2       108.604
  bond angle:     N          C          H            107.622
  bond angle:     N          C          H   _1       110.312
  bond angle:     N          C          H   _2       110.312
  bond angle:     H          C          H   _1       109.605
  bond angle:     H          C          H   _2       109.605
  bond angle:     H   _1     C          H   _2       109.363



@ Geometry converged in 13 iterations!

@ Energy at final geometry is       :    -679.998085 a.u.
@ Energy change during optimization :      -0.254890 a.u.
@                                           -669.215 kJ/mol
 
 >>>> Total CPU  time used in DALTON: 22 minutes 19 seconds
 >>>> Total wall time used in DALTON: 29 minutes 10 seconds

 
     Date and time (Linux)  : Thu Apr 28 13:58:02 2016
     Host name              : c21-3.local                             
